[
    {
        "iteration": 0,
        "data": {
            "SMILES": "[Co].[O-]C(=O)c1ccncc1",
            "Chemical Feasibility": "Valid",
            "Mean Band Gap": 0.488,
            "STD Band Gap": 0.017
        }
    },
    {
        "iteration": 1,
        "data": {
            "SMILES": "[Co].[O-]C(=O)c1cc(F)cncc1",
            "Chemical Feasibility": "Invalid",
            "Mean Band Gap": 0.484,
            "STD Band Gap": 0.014
        }
    },
    {
        "iteration": 2,
        "data": {
            "SMILES": "[Zn].[O-]C(=O)c1ccncc1",
            "Chemical Feasibility": "Valid",
            "Mean Band Gap": 2.861,
            "STD Band Gap": 0.193
        }
    },
    {
        "iteration": 3,
        "data": {
            "SMILES": "[Zn].[O-]C(=O)c1cc(NO2)cncc1",
            "Chemical Feasibility": "Invalid",
            "Mean Band Gap": 2.804,
            "STD Band Gap": 0.223
        }
    },
    {
        "iteration": 4,
        "data": {
            "SMILES": "[Zn].[O-]N(=O)=Oc1ccncc1",
            "Chemical Feasibility": "Invalid",
            "Mean Band Gap": 2.655,
            "STD Band Gap": 0.227
        }
    },
    {
        "iteration": 5,
        "data": {
            "SMILES": "[Zn].[O-]C(=O)c1ccccc1",
            "Chemical Feasibility": "Valid",
            "Mean Band Gap": 2.962,
            "STD Band Gap": 0.197
        }
    },
    {
        "iteration": 6,
        "data": {
            "SMILES": "[Zn].[O-]C(=O)c1cc(NO2)ccc1",
            "Chemical Feasibility": "Invalid",
            "Mean Band Gap": 2.894,
            "STD Band Gap": 0.261
        }
    },
    {
        "iteration": 7,
        "data": {
            "SMILES": "[Zn].[O-]C(=O)c1cc(F)ccc1",
            "Chemical Feasibility": "Valid",
            "Mean Band Gap": 3.139,
            "STD Band Gap": 0.227
        }
    },
    {
        "iteration": 8,
        "data": {
            "SMILES": "[Zn].[O-]N(=O)=Oc1cc(F)ccc1",
            "Chemical Feasibility": "Invalid",
            "Mean Band Gap": 2.818,
            "STD Band Gap": 0.267
        }
    },
    {
        "iteration": 9,
        "data": {
            "SMILES": "[Zn].[O-]C(=O)c1cc(F)cc(F)c1",
            "Chemical Feasibility": "Valid",
            "Mean Band Gap": 3.284,
            "STD Band Gap": 0.245
        }
    }
]